/*--------------------------------*- C++ -*----------------------------------*\
| =========                 |                                                 |
| \\      /  F ield         | OpenFOAM: The Open Source CFD Toolbox           |
|  \\    /   O peration     | Version:  v1712                                 |
|   \\  /    A nd           | Web:      www.OpenFOAM.com                      |
|    \\/     M anipulation  |                                                 |
\*---------------------------------------------------------------------------*/
FoamFile
{
    version     2.0;
    format      ascii;
    class       volScalarField;
    location    "0.5";
    object      p_rgh;
}
// * * * * * * * * * * * * * * * * * * * * * * * * * * * * * * * * * * * * * //

dimensions      [0 2 -2 0 0 0 0];


internalField   nonuniform List<scalar> 
25000
(
1.96128e-05
1.9618e-05
1.96136e-05
1.96155e-05
1.95746e-05
1.95393e-05
1.95e-05
1.94629e-05
1.94251e-05
1.93878e-05
1.93502e-05
1.93128e-05
1.92753e-05
1.92378e-05
1.92003e-05
1.91628e-05
1.91254e-05
1.90879e-05
1.90504e-05
1.90129e-05
1.89754e-05
1.89379e-05
1.89005e-05
1.8863e-05
1.88255e-05
1.8788e-05
1.87505e-05
1.8713e-05
1.86756e-05
1.86381e-05
1.86006e-05
1.85631e-05
1.85256e-05
1.84881e-05
1.84507e-05
1.84132e-05
1.83757e-05
1.83382e-05
1.83007e-05
1.82632e-05
1.82258e-05
1.81883e-05
1.81508e-05
1.81133e-05
1.80758e-05
1.80383e-05
1.80009e-05
1.79634e-05
1.79259e-05
1.78884e-05
1.78509e-05
1.78134e-05
1.7776e-05
1.77385e-05
1.7701e-05
1.76635e-05
1.7626e-05
1.75885e-05
1.75511e-05
1.75136e-05
1.74761e-05
1.74386e-05
1.74011e-05
1.73636e-05
1.73262e-05
1.72887e-05
1.72512e-05
1.72137e-05
1.71762e-05
1.71387e-05
1.71013e-05
1.70638e-05
1.70263e-05
1.69888e-05
1.69513e-05
1.69138e-05
1.68764e-05
1.68389e-05
1.68014e-05
1.67639e-05
1.67264e-05
1.66889e-05
1.66515e-05
1.6614e-05
1.65765e-05
1.6539e-05
1.65015e-05
1.6464e-05
1.64266e-05
1.63891e-05
1.63516e-05
1.63141e-05
1.62766e-05
1.62392e-05
1.62016e-05
1.61643e-05
1.61261e-05
1.60902e-05
1.60452e-05
1.60354e-05
1.59997e-05
1.59625e-05
1.59231e-05
1.58842e-05
1.58452e-05
1.58062e-05
1.57673e-05
1.57283e-05
1.56893e-05
1.56504e-05
1.56114e-05
1.55725e-05
1.55335e-05
1.54945e-05
1.54556e-05
1.54166e-05
1.53777e-05
1.53387e-05
1.52998e-05
1.52608e-05
1.52218e-05
1.51829e-05
1.51439e-05
1.5105e-05
1.5066e-05
1.5027e-05
1.49881e-05
1.49491e-05
1.49102e-05
1.48712e-05
1.48322e-05
1.47933e-05
1.47543e-05
1.47154e-05
1.46764e-05
1.46374e-05
1.45985e-05
1.45595e-05
1.45206e-05
1.44816e-05
1.44426e-05
1.44037e-05
1.43647e-05
1.43258e-05
1.42868e-05
1.42478e-05
1.42089e-05
1.41699e-05
1.4131e-05
1.4092e-05
1.4053e-05
1.40141e-05
1.39751e-05
1.39362e-05
1.38972e-05
1.38583e-05
1.38193e-05
1.37803e-05
1.37414e-05
1.37024e-05
1.36635e-05
1.36245e-05
1.35855e-05
1.35466e-05
1.35076e-05
1.34687e-05
1.34297e-05
1.33907e-05
1.33518e-05
1.33128e-05
1.32739e-05
1.32349e-05
1.31959e-05
1.3157e-05
1.3118e-05
1.30791e-05
1.30401e-05
1.30011e-05
1.29622e-05
1.29232e-05
1.28843e-05
1.28453e-05
1.28063e-05
1.27674e-05
1.27284e-05
1.26895e-05
1.26505e-05
1.26115e-05
1.25726e-05
1.25336e-05
1.24947e-05
1.24557e-05
1.24167e-05
1.23778e-05
1.23388e-05
1.22999e-05
1.22609e-05
1.2222e-05
1.2183e-05
1.2144e-05
1.21051e-05
1.20661e-05
1.20272e-05
1.19882e-05
1.19492e-05
1.19103e-05
1.18713e-05
1.18324e-05
1.17934e-05
1.17544e-05
1.17155e-05
1.16765e-05
1.16376e-05
1.15986e-05
1.15596e-05
1.15207e-05
1.14817e-05
1.14428e-05
1.14038e-05
1.13648e-05
1.13259e-05
1.12869e-05
1.1248e-05
1.1209e-05
1.117e-05
1.11311e-05
1.10921e-05
1.10532e-05
1.10142e-05
1.09752e-05
1.09363e-05
1.08973e-05
1.08584e-05
1.08194e-05
1.07805e-05
1.07415e-05
1.07025e-05
1.06636e-05
1.06246e-05
1.05857e-05
1.05467e-05
1.05077e-05
1.04688e-05
1.04298e-05
1.03909e-05
1.03519e-05
1.03129e-05
1.0274e-05
1.0235e-05
1.01961e-05
1.01571e-05
1.01181e-05
1.00792e-05
1.00402e-05
1.00013e-05
9.9623e-06
9.92334e-06
9.88438e-06
9.84542e-06
9.80646e-06
9.7675e-06
9.72854e-06
9.68958e-06
9.65062e-06
9.61167e-06
9.57271e-06
9.53375e-06
9.49479e-06
9.45583e-06
9.41687e-06
9.37791e-06
9.33895e-06
9.29999e-06
9.26103e-06
9.22207e-06
9.18311e-06
9.14415e-06
9.10519e-06
9.06623e-06
9.02727e-06
8.98831e-06
8.94935e-06
8.91039e-06
8.87143e-06
8.83248e-06
8.79352e-06
8.75456e-06
8.7156e-06
8.67663e-06
8.63769e-06
8.59869e-06
8.55981e-06
8.52068e-06
8.48212e-06
8.44208e-06
8.40516e-06
8.35641e-06
8.34082e-06
8.32513e-06
8.3249e-06
8.29196e-06
8.25842e-06
8.2223e-06
8.18717e-06
8.15175e-06
8.1165e-06
8.08119e-06
8.04591e-06
8.01062e-06
7.97533e-06
7.94004e-06
7.90475e-06
7.86946e-06
7.83417e-06
7.79889e-06
7.7636e-06
7.72831e-06
7.69302e-06
7.65773e-06
7.62244e-06
7.58715e-06
7.55186e-06
7.51657e-06
7.48128e-06
7.44599e-06
7.4107e-06
7.37542e-06
7.34013e-06
7.30484e-06
7.26955e-06
7.23426e-06
7.19897e-06
7.16368e-06
7.12839e-06
7.0931e-06
7.05781e-06
7.02252e-06
6.98723e-06
6.95195e-06
6.91666e-06
6.88137e-06
6.84608e-06
6.81079e-06
6.7755e-06
6.74021e-06
6.70492e-06
6.66963e-06
6.63434e-06
6.59905e-06
6.56376e-06
6.52848e-06
6.49319e-06
6.4579e-06
6.42261e-06
6.38732e-06
6.35203e-06
6.31674e-06
6.28145e-06
6.24616e-06
6.21087e-06
6.17558e-06
6.14029e-06
6.10501e-06
6.06972e-06
6.03443e-06
5.99914e-06
5.96385e-06
5.92856e-06
5.89327e-06
5.85798e-06
5.82269e-06
5.7874e-06
5.75211e-06
5.71682e-06
5.68154e-06
5.64625e-06
5.61096e-06
5.57567e-06
5.54038e-06
5.50509e-06
5.4698e-06
5.43451e-06
5.39922e-06
5.36393e-06
5.32864e-06
5.29336e-06
5.25807e-06
5.22278e-06
5.18749e-06
5.1522e-06
5.11691e-06
5.08163e-06
5.04631e-06
5.01109e-06
4.97565e-06
4.9407e-06
4.90449e-06
4.87103e-06
4.82754e-06
4.81431e-06
4.79307e-06
4.76589e-06
4.73876e-06
4.71088e-06
4.6833e-06
4.6556e-06
4.62795e-06
4.60028e-06
4.57262e-06
4.54496e-06
4.5173e-06
4.48964e-06
4.46197e-06
4.43431e-06
4.40665e-06
4.37899e-06
4.35133e-06
4.32366e-06
4.296e-06
4.26834e-06
4.24068e-06
4.21302e-06
4.18535e-06
4.15769e-06
4.13003e-06
4.10237e-06
4.07471e-06
4.04704e-06
4.01938e-06
3.99172e-06
3.96406e-06
3.9364e-06
3.90873e-06
3.88107e-06
3.85341e-06
3.82575e-06
3.79809e-06
3.77042e-06
3.74276e-06
3.7151e-06
3.68744e-06
3.65978e-06
3.63211e-06
3.60445e-06
3.57679e-06
3.54913e-06
3.52147e-06
3.4938e-06
3.46614e-06
3.43848e-06
3.41082e-06
3.38316e-06
3.35549e-06
3.32783e-06
3.30017e-06
3.27251e-06
3.24485e-06
3.21718e-06
3.18952e-06
3.16186e-06
3.1342e-06
3.10654e-06
3.07887e-06
3.05121e-06
3.02355e-06
2.99589e-06
2.96823e-06
2.94056e-06
2.9129e-06
2.88524e-06
2.85758e-06
2.82992e-06
2.80225e-06
2.77459e-06
2.74693e-06
2.71927e-06
2.69161e-06
2.66394e-06
2.63628e-06
2.60862e-06
2.58096e-06
2.55329e-06
2.52563e-06
2.49797e-06
2.47031e-06
2.44265e-06
2.41498e-06
2.38732e-06
2.35966e-06
2.332e-06
2.30433e-06
2.2767e-06
2.24896e-06
2.22148e-06
2.19341e-06
2.16666e-06
2.13688e-06
2.11324e-06
2.07248e-06
2.05907e-06
1.96129e-05
1.96174e-05
1.96123e-05
1.96127e-05
1.95718e-05
1.95372e-05
1.94979e-05
1.9461e-05
1.94232e-05
1.93858e-05
1.93483e-05
1.93108e-05
1.92733e-05
1.92359e-05
1.91984e-05
1.91609e-05
1.91234e-05
1.90859e-05
1.90485e-05
1.9011e-05
1.89735e-05
1.8936e-05
1.88985e-05
1.8861e-05
1.88236e-05
1.87861e-05
1.87486e-05
1.87111e-05
1.86736e-05
1.86361e-05
1.85987e-05
1.85612e-05
1.85237e-05
1.84862e-05
1.84487e-05
1.84112e-05
1.83738e-05
1.83363e-05
1.82988e-05
1.82613e-05
1.82238e-05
1.81863e-05
1.81489e-05
1.81114e-05
1.80739e-05
1.80364e-05
1.79989e-05
1.79614e-05
1.7924e-05
1.78865e-05
1.7849e-05
1.78115e-05
1.7774e-05
1.77365e-05
1.76991e-05
1.76616e-05
1.76241e-05
1.75866e-05
1.75491e-05
1.75116e-05
1.74742e-05
1.74367e-05
1.73992e-05
1.73617e-05
1.73242e-05
1.72867e-05
1.72493e-05
1.72118e-05
1.71743e-05
1.71368e-05
1.70993e-05
1.70618e-05
1.70244e-05
1.69869e-05
1.69494e-05
1.69119e-05
1.68744e-05
1.68369e-05
1.67995e-05
1.6762e-05
1.67245e-05
1.6687e-05
1.66495e-05
1.6612e-05
1.65746e-05
1.65371e-05
1.64996e-05
1.64621e-05
1.64246e-05
1.63871e-05
1.63496e-05
1.63122e-05
1.62747e-05
1.62372e-05
1.61996e-05
1.61624e-05
1.61242e-05
1.60884e-05
1.60444e-05
1.60338e-05
1.59974e-05
1.59604e-05
1.5921e-05
1.58822e-05
1.58431e-05
1.58042e-05
1.57652e-05
1.57263e-05
1.56873e-05
1.56484e-05
1.56094e-05
1.55705e-05
1.55315e-05
1.54925e-05
1.54536e-05
1.54146e-05
1.53757e-05
1.53367e-05
1.52977e-05
1.52588e-05
1.52198e-05
1.51809e-05
1.51419e-05
1.51029e-05
1.5064e-05
1.5025e-05
1.49861e-05
1.49471e-05
1.49081e-05
1.48692e-05
1.48302e-05
1.47913e-05
1.47523e-05
1.47133e-05
1.46744e-05
1.46354e-05
1.45965e-05
1.45575e-05
1.45185e-05
1.44796e-05
1.44406e-05
1.44017e-05
1.43627e-05
1.43237e-05
1.42848e-05
1.42458e-05
1.42069e-05
1.41679e-05
1.41289e-05
1.409e-05
1.4051e-05
1.40121e-05
1.39731e-05
1.39342e-05
1.38952e-05
1.38562e-05
1.38173e-05
1.37783e-05
1.37394e-05
1.37004e-05
1.36614e-05
1.36225e-05
1.35835e-05
1.35446e-05
1.35056e-05
1.34666e-05
1.34277e-05
1.33887e-05
1.33498e-05
1.33108e-05
1.32718e-05
1.32329e-05
1.31939e-05
1.3155e-05
1.3116e-05
1.3077e-05
1.30381e-05
1.29991e-05
1.29602e-05
1.29212e-05
1.28822e-05
1.28433e-05
1.28043e-05
1.27654e-05
1.27264e-05
1.26874e-05
1.26485e-05
1.26095e-05
1.25706e-05
1.25316e-05
1.24927e-05
1.24537e-05
1.24147e-05
1.23758e-05
1.23368e-05
1.22979e-05
1.22589e-05
1.22199e-05
1.2181e-05
1.2142e-05
1.21031e-05
1.20641e-05
1.20251e-05
1.19862e-05
1.19472e-05
1.19083e-05
1.18693e-05
1.18303e-05
1.17914e-05
1.17524e-05
1.17135e-05
1.16745e-05
1.16355e-05
1.15966e-05
1.15576e-05
1.15187e-05
1.14797e-05
1.14407e-05
1.14018e-05
1.13628e-05
1.13239e-05
1.12849e-05
1.12459e-05
1.1207e-05
1.1168e-05
1.11291e-05
1.10901e-05
1.10511e-05
1.10122e-05
1.09732e-05
1.09343e-05
1.08953e-05
1.08564e-05
1.08174e-05
1.07784e-05
1.07395e-05
1.07005e-05
1.06616e-05
1.06226e-05
1.05836e-05
1.05447e-05
1.05057e-05
1.04668e-05
1.04278e-05
1.03888e-05
1.03499e-05
1.03109e-05
1.0272e-05
1.0233e-05
1.0194e-05
1.01551e-05
1.01161e-05
1.00772e-05
1.00382e-05
9.99924e-06
9.96028e-06
9.92132e-06
9.88237e-06
9.84341e-06
9.80445e-06
9.76549e-06
9.72653e-06
9.68757e-06
9.64861e-06
9.60965e-06
9.57069e-06
9.53173e-06
9.49277e-06
9.45381e-06
9.41485e-06
9.37589e-06
9.33693e-06
9.29797e-06
9.25901e-06
9.22005e-06
9.18109e-06
9.14213e-06
9.10318e-06
9.06422e-06
9.02526e-06
8.9863e-06
8.94734e-06
8.90838e-06
8.86942e-06
8.83046e-06
8.7915e-06
8.75254e-06
8.71358e-06
8.67462e-06
8.63567e-06
8.59668e-06
8.55779e-06
8.51867e-06
8.48008e-06
8.4401e-06
8.40323e-06
8.35586e-06
8.34088e-06
8.32471e-06
8.32306e-06
8.28963e-06
8.25645e-06
8.22042e-06
8.18534e-06
8.14992e-06
8.11468e-06
8.07936e-06
8.04409e-06
8.00879e-06
7.9735e-06
7.93821e-06
7.90293e-06
7.86764e-06
7.83235e-06
7.79706e-06
7.76177e-06
7.72648e-06
7.69119e-06
7.6559e-06
7.62061e-06
7.58532e-06
7.55003e-06
7.51475e-06
7.47946e-06
7.44417e-06
7.40888e-06
7.37359e-06
7.3383e-06
7.30301e-06
7.26772e-06
7.23243e-06
7.19714e-06
7.16185e-06
7.12656e-06
7.09128e-06
7.05599e-06
7.0207e-06
6.98541e-06
6.95012e-06
6.91483e-06
6.87954e-06
6.84425e-06
6.80896e-06
6.77367e-06
6.73838e-06
6.70309e-06
6.66781e-06
6.63252e-06
6.59723e-06
6.56194e-06
6.52665e-06
6.49136e-06
6.45607e-06
6.42078e-06
6.38549e-06
6.3502e-06
6.31491e-06
6.27962e-06
6.24434e-06
6.20905e-06
6.17376e-06
6.13847e-06
6.10318e-06
6.06789e-06
6.0326e-06
5.99731e-06
5.96202e-06
5.92673e-06
5.89144e-06
5.85615e-06
5.82087e-06
5.78558e-06
5.75029e-06
5.715e-06
5.67971e-06
5.64442e-06
5.60913e-06
5.57384e-06
5.53855e-06
5.50326e-06
5.46797e-06
5.43268e-06
5.3974e-06
5.36211e-06
5.32682e-06
5.29153e-06
5.25624e-06
5.22095e-06
5.18566e-06
5.15037e-06
5.11508e-06
5.0798e-06
5.04448e-06
5.00926e-06
4.97383e-06
4.93886e-06
4.90269e-06
4.86928e-06
4.82686e-06
4.81365e-06
4.79163e-06
4.76439e-06
4.73731e-06
4.70944e-06
4.68187e-06
4.65416e-06
4.62652e-06
4.59885e-06
4.57119e-06
4.54353e-06
4.51587e-06
4.4882e-06
4.46054e-06
4.43288e-06
4.40522e-06
4.37756e-06
4.34989e-06
4.32223e-06
4.29457e-06
4.26691e-06
4.23925e-06
4.21158e-06
4.18392e-06
4.15626e-06
4.1286e-06
4.10094e-06
4.07327e-06
4.04561e-06
4.01795e-06
3.99029e-06
3.96263e-06
3.93496e-06
3.9073e-06
3.87964e-06
3.85198e-06
3.82432e-06
3.79665e-06
3.76899e-06
3.74133e-06
3.71367e-06
3.68601e-06
3.65834e-06
3.63068e-06
3.60302e-06
3.57536e-06
3.5477e-06
3.52003e-06
3.49237e-06
3.46471e-06
3.43705e-06
3.40939e-06
3.38172e-06
3.35406e-06
3.3264e-06
3.29874e-06
3.27108e-06
3.24341e-06
3.21575e-06
3.18809e-06
3.16043e-06
3.13277e-06
3.1051e-06
3.07744e-06
3.04978e-06
3.02212e-06
2.99446e-06
2.96679e-06
2.93913e-06
2.91147e-06
2.88381e-06
2.85615e-06
2.82848e-06
2.80082e-06
2.77316e-06
2.7455e-06
2.71784e-06
2.69017e-06
2.66251e-06
2.63485e-06
2.60719e-06
2.57953e-06
2.55186e-06
2.5242e-06
2.49654e-06
2.46888e-06
2.44122e-06
2.41355e-06
2.38589e-06
2.35823e-06
2.33057e-06
2.30289e-06
2.27527e-06
2.24753e-06
2.22004e-06
2.19199e-06
2.1652e-06
2.13549e-06
2.11177e-06
2.0726e-06
2.06138e-06
1.96129e-05
1.96168e-05
1.96108e-05
1.96102e-05
1.9569e-05
1.95351e-05
1.94959e-05
1.94591e-05
1.94213e-05
1.93839e-05
1.93464e-05
1.93089e-05
1.92714e-05
1.92339e-05
1.91964e-05
1.9159e-05
1.91215e-05
1.9084e-05
1.90465e-05
1.9009e-05
1.89715e-05
1.89341e-05
1.88966e-05
1.88591e-05
1.88216e-05
1.87841e-05
1.87466e-05
1.87092e-05
1.86717e-05
1.86342e-05
1.85967e-05
1.85592e-05
1.85217e-05
1.84843e-05
1.84468e-05
1.84093e-05
1.83718e-05
1.83343e-05
1.82968e-05
1.82594e-05
1.82219e-05
1.81844e-05
1.81469e-05
1.81094e-05
1.80719e-05
1.80345e-05
1.7997e-05
1.79595e-05
1.7922e-05
1.78845e-05
1.7847e-05
1.78096e-05
1.77721e-05
1.77346e-05
1.76971e-05
1.76596e-05
1.76221e-05
1.75847e-05
1.75472e-05
1.75097e-05
1.74722e-05
1.74347e-05
1.73972e-05
1.73598e-05
1.73223e-05
1.72848e-05
1.72473e-05
1.72098e-05
1.71723e-05
1.71349e-05
1.70974e-05
1.70599e-05
1.70224e-05
1.69849e-05
1.69474e-05
1.691e-05
1.68725e-05
1.6835e-05
1.67975e-05
1.676e-05
1.67225e-05
1.66851e-05
1.66476e-05
1.66101e-05
1.65726e-05
1.65351e-05
1.64976e-05
1.64602e-05
1.64227e-05
1.63852e-05
1.63477e-05
1.63102e-05
1.62727e-05
1.62353e-05
1.61977e-05
1.61604e-05
1.61223e-05
1.60866e-05
1.60431e-05
1.60324e-05
1.59951e-05
1.59583e-05
1.5919e-05
1.58802e-05
1.58411e-05
1.58022e-05
1.57632e-05
1.57243e-05
1.56853e-05
1.56464e-05
1.56074e-05
1.55684e-05
1.55295e-05
1.54905e-05
1.54516e-05
1.54126e-05
1.53736e-05
1.53347e-05
1.52957e-05
1.52568e-05
1.52178e-05
1.51788e-05
1.51399e-05
1.51009e-05
1.5062e-05
1.5023e-05
1.4984e-05
1.49451e-05
1.49061e-05
1.48672e-05
1.48282e-05
1.47892e-05
1.47503e-05
1.47113e-05
1.46724e-05
1.46334e-05
1.45944e-05
1.45555e-05
1.45165e-05
1.44776e-05
1.44386e-05
1.43996e-05
1.43607e-05
1.43217e-05
1.42828e-05
1.42438e-05
1.42049e-05
1.41659e-05
1.41269e-05
1.4088e-05
1.4049e-05
1.40101e-05
1.39711e-05
1.39321e-05
1.38932e-05
1.38542e-05
1.38153e-05
1.37763e-05
1.37373e-05
1.36984e-05
1.36594e-05
1.36205e-05
1.35815e-05
1.35425e-05
1.35036e-05
1.34646e-05
1.34257e-05
1.33867e-05
1.33477e-05
1.33088e-05
1.32698e-05
1.32309e-05
1.31919e-05
1.31529e-05
1.3114e-05
1.3075e-05
1.30361e-05
1.29971e-05
1.29581e-05
1.29192e-05
1.28802e-05
1.28413e-05
1.28023e-05
1.27634e-05
1.27244e-05
1.26854e-05
1.26465e-05
1.26075e-05
1.25686e-05
1.25296e-05
1.24906e-05
1.24517e-05
1.24127e-05
1.23738e-05
1.23348e-05
1.22958e-05
1.22569e-05
1.22179e-05
1.2179e-05
1.214e-05
1.2101e-05
1.20621e-05
1.20231e-05
1.19842e-05
1.19452e-05
1.19062e-05
1.18673e-05
1.18283e-05
1.17894e-05
1.17504e-05
1.17114e-05
1.16725e-05
1.16335e-05
1.15946e-05
1.15556e-05
1.15166e-05
1.14777e-05
1.14387e-05
1.13998e-05
1.13608e-05
1.13218e-05
1.12829e-05
1.12439e-05
1.1205e-05
1.1166e-05
1.11271e-05
1.10881e-05
1.10491e-05
1.10102e-05
1.09712e-05
1.09323e-05
1.08933e-05
1.08543e-05
1.08154e-05
1.07764e-05
1.07375e-05
1.06985e-05
1.06595e-05
1.06206e-05
1.05816e-05
1.05427e-05
1.05037e-05
1.04647e-05
1.04258e-05
1.03868e-05
1.03479e-05
1.03089e-05
1.02699e-05
1.0231e-05
1.0192e-05
1.01531e-05
1.01141e-05
1.00751e-05
1.00362e-05
9.99723e-06
9.95827e-06
9.91931e-06
9.88035e-06
9.84139e-06
9.80243e-06
9.76347e-06
9.72451e-06
9.68555e-06
9.64659e-06
9.60763e-06
9.56867e-06
9.52971e-06
9.49075e-06
9.45179e-06
9.41283e-06
9.37387e-06
9.33492e-06
9.29596e-06
9.257e-06
9.21804e-06
9.17908e-06
9.14012e-06
9.10116e-06
9.0622e-06
9.02324e-06
8.98428e-06
8.94532e-06
8.90636e-06
8.8674e-06
8.82844e-06
8.78948e-06
8.75052e-06
8.71157e-06
8.6726e-06
8.63365e-06
8.59466e-06
8.55578e-06
8.51665e-06
8.47806e-06
8.43812e-06
8.40142e-06
8.35506e-06
8.3409e-06
8.32413e-06
8.32148e-06
8.28733e-06
8.2545e-06
8.21854e-06
8.18351e-06
8.14809e-06
8.11285e-06
8.07754e-06
8.04226e-06
8.00697e-06
7.97168e-06
7.93639e-06
7.9011e-06
7.86581e-06
7.83052e-06
7.79523e-06
7.75994e-06
7.72465e-06
7.68936e-06
7.65408e-06
7.61879e-06
7.5835e-06
7.54821e-06
7.51292e-06
7.47763e-06
7.44234e-06
7.40705e-06
7.37176e-06
7.33647e-06
7.30118e-06
7.26589e-06
7.23061e-06
7.19532e-06
7.16003e-06
7.12474e-06
7.08945e-06
7.05416e-06
7.01887e-06
6.98358e-06
6.94829e-06
6.913e-06
6.87771e-06
6.84242e-06
6.80714e-06
6.77185e-06
6.73656e-06
6.70127e-06
6.66598e-06
6.63069e-06
6.5954e-06
6.56011e-06
6.52482e-06
6.48953e-06
6.45424e-06
6.41895e-06
6.38367e-06
6.34838e-06
6.31309e-06
6.2778e-06
6.24251e-06
6.20722e-06
6.17193e-06
6.13664e-06
6.10135e-06
6.06606e-06
6.03077e-06
5.99548e-06
5.9602e-06
5.92491e-06
5.88962e-06
5.85433e-06
5.81904e-06
5.78375e-06
5.74846e-06
5.71317e-06
5.67788e-06
5.64259e-06
5.6073e-06
5.57201e-06
5.53673e-06
5.50144e-06
5.46615e-06
5.43086e-06
5.39557e-06
5.36028e-06
5.32499e-06
5.2897e-06
5.25441e-06
5.21912e-06
5.18383e-06
5.14855e-06
5.11325e-06
5.07798e-06
5.04266e-06
5.00743e-06
4.972e-06
4.93703e-06
4.9009e-06
4.86761e-06
4.82594e-06
4.81306e-06
4.79026e-06
4.76291e-06
4.73587e-06
4.708e-06
4.68044e-06
4.65273e-06
4.62509e-06
4.59742e-06
4.56976e-06
4.5421e-06
4.51443e-06
4.48677e-06
4.45911e-06
4.43145e-06
4.40379e-06
4.37612e-06
4.34846e-06
4.3208e-06
4.29314e-06
4.26548e-06
4.23781e-06
4.21015e-06
4.18249e-06
4.15483e-06
4.12717e-06
4.0995e-06
4.07184e-06
4.04418e-06
4.01652e-06
3.98886e-06
3.96119e-06
3.93353e-06
3.90587e-06
3.87821e-06
3.85055e-06
3.82288e-06
3.79522e-06
3.76756e-06
3.7399e-06
3.71224e-06
3.68457e-06
3.65691e-06
3.62925e-06
3.60159e-06
3.57393e-06
3.54626e-06
3.5186e-06
3.49094e-06
3.46328e-06
3.43562e-06
3.40795e-06
3.38029e-06
3.35263e-06
3.32497e-06
3.29731e-06
3.26964e-06
3.24198e-06
3.21432e-06
3.18666e-06
3.159e-06
3.13133e-06
3.10367e-06
3.07601e-06
3.04835e-06
3.02069e-06
2.99302e-06
2.96536e-06
2.9377e-06
2.91004e-06
2.88238e-06
2.85471e-06
2.82705e-06
2.79939e-06
2.77173e-06
2.74407e-06
2.7164e-06
2.68874e-06
2.66108e-06
2.63342e-06
2.60576e-06
2.57809e-06
2.55043e-06
2.52277e-06
2.49511e-06
2.46745e-06
2.43978e-06
2.41212e-06
2.38446e-06
2.3568e-06
2.32914e-06
2.30146e-06
2.27384e-06
2.2461e-06
2.21861e-06
2.19056e-06
2.16375e-06
2.13408e-06
2.11049e-06
2.07256e-06
2.06323e-06
1.96128e-05
1.96163e-05
1.96097e-05
1.96085e-05
1.95665e-05
1.95331e-05
1.94939e-05
1.94571e-05
1.94193e-05
1.9382e-05
1.93444e-05
1.9307e-05
1.92695e-05
1.9232e-05
1.91945e-05
1.9157e-05
1.91195e-05
1.90821e-05
1.90446e-05
1.90071e-05
1.89696e-05
1.89321e-05
1.88946e-05
1.88572e-05
1.88197e-05
1.87822e-05
1.87447e-05
1.87072e-05
1.86697e-05
1.86323e-05
1.85948e-05
1.85573e-05
1.85198e-05
1.84823e-05
1.84448e-05
1.84074e-05
1.83699e-05
1.83324e-05
1.82949e-05
1.82574e-05
1.82199e-05
1.81825e-05
1.8145e-05
1.81075e-05
1.807e-05
1.80325e-05
1.7995e-05
1.79576e-05
1.79201e-05
1.78826e-05
1.78451e-05
1.78076e-05
1.77701e-05
1.77327e-05
1.76952e-05
1.76577e-05
1.76202e-05
1.75827e-05
1.75452e-05
1.75078e-05
1.74703e-05
1.74328e-05
1.73953e-05
1.73578e-05
1.73203e-05
1.72829e-05
1.72454e-05
1.72079e-05
1.71704e-05
1.71329e-05
1.70954e-05
1.7058e-05
1.70205e-05
1.6983e-05
1.69455e-05
1.6908e-05
1.68705e-05
1.68331e-05
1.67956e-05
1.67581e-05
1.67206e-05
1.66831e-05
1.66456e-05
1.66082e-05
1.65707e-05
1.65332e-05
1.64957e-05
1.64582e-05
1.64207e-05
1.63833e-05
1.63458e-05
1.63083e-05
1.62708e-05
1.62333e-05
1.61958e-05
1.61585e-05
1.61204e-05
1.60847e-05
1.60415e-05
1.60313e-05
1.5993e-05
1.59562e-05
1.59169e-05
1.58782e-05
1.58391e-05
1.58002e-05
1.57612e-05
1.57223e-05
1.56833e-05
1.56443e-05
1.56054e-05
1.55664e-05
1.55275e-05
1.54885e-05
1.54495e-05
1.54106e-05
1.53716e-05
1.53327e-05
1.52937e-05
1.52547e-05
1.52158e-05
1.51768e-05
1.51379e-05
1.50989e-05
1.50599e-05
1.5021e-05
1.4982e-05
1.49431e-05
1.49041e-05
1.48651e-05
1.48262e-05
1.47872e-05
1.47483e-05
1.47093e-05
1.46703e-05
1.46314e-05
1.45924e-05
1.45535e-05
1.45145e-05
1.44756e-05
1.44366e-05
1.43976e-05
1.43587e-05
1.43197e-05
1.42808e-05
1.42418e-05
1.42028e-05
1.41639e-05
1.41249e-05
1.4086e-05
1.4047e-05
1.4008e-05
1.39691e-05
1.39301e-05
1.38912e-05
1.38522e-05
1.38132e-05
1.37743e-05
1.37353e-05
1.36964e-05
1.36574e-05
1.36184e-05
1.35795e-05
1.35405e-05
1.35016e-05
1.34626e-05
1.34236e-05
1.33847e-05
1.33457e-05
1.33068e-05
1.32678e-05
1.32288e-05
1.31899e-05
1.31509e-05
1.3112e-05
1.3073e-05
1.30341e-05
1.29951e-05
1.29561e-05
1.29172e-05
1.28782e-05
1.28393e-05
1.28003e-05
1.27613e-05
1.27224e-05
1.26834e-05
1.26445e-05
1.26055e-05
1.25665e-05
1.25276e-05
1.24886e-05
1.24497e-05
1.24107e-05
1.23717e-05
1.23328e-05
1.22938e-05
1.22549e-05
1.22159e-05
1.21769e-05
1.2138e-05
1.2099e-05
1.20601e-05
1.20211e-05
1.19821e-05
1.19432e-05
1.19042e-05
1.18653e-05
1.18263e-05
1.17873e-05
1.17484e-05
1.17094e-05
1.16705e-05
1.16315e-05
1.15925e-05
1.15536e-05
1.15146e-05
1.14757e-05
1.14367e-05
1.13978e-05
1.13588e-05
1.13198e-05
1.12809e-05
1.12419e-05
1.1203e-05
1.1164e-05
1.1125e-05
1.10861e-05
1.10471e-05
1.10082e-05
1.09692e-05
1.09302e-05
1.08913e-05
1.08523e-05
1.08134e-05
1.07744e-05
1.07354e-05
1.06965e-05
1.06575e-05
1.06186e-05
1.05796e-05
1.05406e-05
1.05017e-05
1.04627e-05
1.04238e-05
1.03848e-05
1.03458e-05
1.03069e-05
1.02679e-05
1.0229e-05
1.019e-05
1.0151e-05
1.01121e-05
1.00731e-05
1.00342e-05
9.99521e-06
9.95625e-06
9.91729e-06
9.87833e-06
9.83937e-06
9.80041e-06
9.76145e-06
9.72249e-06
9.68353e-06
9.64457e-06
9.60562e-06
9.56666e-06
9.5277e-06
9.48874e-06
9.44978e-06
9.41082e-06
9.37186e-06
9.3329e-06
9.29394e-06
9.25498e-06
9.21602e-06
9.17706e-06
9.1381e-06
9.09914e-06
9.06018e-06
9.02122e-06
8.98226e-06
8.9433e-06
8.90434e-06
8.86538e-06
8.82643e-06
8.78747e-06
8.74851e-06
8.70955e-06
8.67058e-06
8.63164e-06
8.59265e-06
8.55376e-06
8.51464e-06
8.47604e-06
8.43617e-06
8.39954e-06
8.35369e-06
8.34055e-06
8.32348e-06
8.32042e-06
8.2853e-06
8.25263e-06
8.21667e-06
8.18169e-06
8.14626e-06
8.11103e-06
8.07571e-06
8.04043e-06
8.00514e-06
7.96985e-06
7.93456e-06
7.89927e-06
7.86398e-06
7.82869e-06
7.79341e-06
7.75812e-06
7.72283e-06
7.68754e-06
7.65225e-06
7.61696e-06
7.58167e-06
7.54638e-06
7.51109e-06
7.4758e-06
7.44051e-06
7.40522e-06
7.36994e-06
7.33465e-06
7.29936e-06
7.26407e-06
7.22878e-06
7.19349e-06
7.1582e-06
7.12291e-06
7.08762e-06
7.05233e-06
7.01704e-06
6.98175e-06
6.94647e-06
6.91118e-06
6.87589e-06
6.8406e-06
6.80531e-06
6.77002e-06
6.73473e-06
6.69944e-06
6.66415e-06
6.62886e-06
6.59357e-06
6.55828e-06
6.523e-06
6.48771e-06
6.45242e-06
6.41713e-06
6.38184e-06
6.34655e-06
6.31126e-06
6.27597e-06
6.24068e-06
6.20539e-06
6.1701e-06
6.13481e-06
6.09953e-06
6.06424e-06
6.02895e-06
5.99366e-06
5.95837e-06
5.92308e-06
5.88779e-06
5.8525e-06
5.81721e-06
5.78192e-06
5.74663e-06
5.71134e-06
5.67606e-06
5.64077e-06
5.60548e-06
5.57019e-06
5.5349e-06
5.49961e-06
5.46432e-06
5.42903e-06
5.39374e-06
5.35845e-06
5.32316e-06
5.28787e-06
5.25259e-06
5.2173e-06
5.18201e-06
5.14672e-06
5.11143e-06
5.07615e-06
5.04083e-06
5.0056e-06
4.97018e-06
4.9352e-06
4.89913e-06
4.86587e-06
4.82456e-06
4.81245e-06
4.78904e-06
4.76146e-06
4.73445e-06
4.70656e-06
4.67901e-06
4.6513e-06
4.62366e-06
4.59598e-06
4.56833e-06
4.54066e-06
4.513e-06
4.48534e-06
4.45768e-06
4.43002e-06
4.40235e-06
4.37469e-06
4.34703e-06
4.31937e-06
4.29171e-06
4.26404e-06
4.23638e-06
4.20872e-06
4.18106e-06
4.1534e-06
4.12573e-06
4.09807e-06
4.07041e-06
4.04275e-06
4.01509e-06
3.98742e-06
3.95976e-06
3.9321e-06
3.90444e-06
3.87678e-06
3.84911e-06
3.82145e-06
3.79379e-06
3.76613e-06
3.73847e-06
3.7108e-06
3.68314e-06
3.65548e-06
3.62782e-06
3.60016e-06
3.57249e-06
3.54483e-06
3.51717e-06
3.48951e-06
3.46185e-06
3.43418e-06
3.40652e-06
3.37886e-06
3.3512e-06
3.32354e-06
3.29587e-06
3.26821e-06
3.24055e-06
3.21289e-06
3.18523e-06
3.15756e-06
3.1299e-06
3.10224e-06
3.07458e-06
3.04692e-06
3.01925e-06
2.99159e-06
2.96393e-06
2.93627e-06
2.90861e-06
2.88094e-06
2.85328e-06
2.82562e-06
2.79796e-06
2.7703e-06
2.74263e-06
2.71497e-06
2.68731e-06
2.65965e-06
2.63199e-06
2.60432e-06
2.57666e-06
2.549e-06
2.52134e-06
2.49368e-06
2.46601e-06
2.43835e-06
2.41069e-06
2.38303e-06
2.35536e-06
2.32771e-06
2.30003e-06
2.2724e-06
2.24466e-06
2.21717e-06
2.18913e-06
2.16231e-06
2.1327e-06
2.10927e-06
2.07188e-06
2.06393e-06
1.96126e-05
1.96159e-05
1.96089e-05
1.96075e-05
1.95643e-05
1.95311e-05
1.94919e-05
1.94552e-05
1.94174e-05
1.938e-05
1.93425e-05
1.9305e-05
1.92675e-05
1.92301e-05
1.91926e-05
1.91551e-05
1.91176e-05
1.90801e-05
1.90426e-05
1.90051e-05
1.89677e-05
1.89302e-05
1.88927e-05
1.88552e-05
1.88177e-05
1.87802e-05
1.87428e-05
1.87053e-05
1.86678e-05
1.86303e-05
1.85928e-05
1.85553e-05
1.85179e-05
1.84804e-05
1.84429e-05
1.84054e-05
1.83679e-05
1.83304e-05
1.8293e-05
1.82555e-05
1.8218e-05
1.81805e-05
1.8143e-05
1.81055e-05
1.80681e-05
1.80306e-05
1.79931e-05
1.79556e-05
1.79181e-05
1.78806e-05
1.78432e-05
1.78057e-05
1.77682e-05
1.77307e-05
1.76932e-05
1.76557e-05
1.76183e-05
1.75808e-05
1.75433e-05
1.75058e-05
1.74683e-05
1.74308e-05
1.73934e-05
1.73559e-05
1.73184e-05
1.72809e-05
1.72434e-05
1.72059e-05
1.71685e-05
1.7131e-05
1.70935e-05
1.7056e-05
1.70185e-05
1.6981e-05
1.69436e-05
1.69061e-05
1.68686e-05
1.68311e-05
1.67936e-05
1.67561e-05
1.67187e-05
1.66812e-05
1.66437e-05
1.66062e-05
1.65687e-05
1.65312e-05
1.64938e-05
1.64563e-05
1.64188e-05
1.63813e-05
1.63438e-05
1.63064e-05
1.62689e-05
1.62314e-05
1.61938e-05
1.61566e-05
1.61186e-05
1.60826e-05
1.60396e-05
1.60305e-05
1.59912e-05
1.59542e-05
1.59149e-05
1.58761e-05
1.58371e-05
1.57982e-05
1.57592e-05
1.57202e-05
1.56813e-05
1.56423e-05
1.56034e-05
1.55644e-05
1.55254e-05
1.54865e-05
1.54475e-05
1.54086e-05
1.53696e-05
1.53306e-05
1.52917e-05
1.52527e-05
1.52138e-05
1.51748e-05
1.51358e-05
1.50969e-05
1.50579e-05
1.5019e-05
1.498e-05
1.4941e-05
1.49021e-05
1.48631e-05
1.48242e-05
1.47852e-05
1.47463e-05
1.47073e-05
1.46683e-05
1.46294e-05
1.45904e-05
1.45515e-05
1.45125e-05
1.44735e-05
1.44346e-05
1.43956e-05
1.43567e-05
1.43177e-05
1.42787e-05
1.42398e-05
1.42008e-05
1.41619e-05
1.41229e-05
1.40839e-05
1.4045e-05
1.4006e-05
1.39671e-05
1.39281e-05
1.38891e-05
1.38502e-05
1.38112e-05
1.37723e-05
1.37333e-05
1.36943e-05
1.36554e-05
1.36164e-05
1.35775e-05
1.35385e-05
1.34995e-05
1.34606e-05
1.34216e-05
1.33827e-05
1.33437e-05
1.33048e-05
1.32658e-05
1.32268e-05
1.31879e-05
1.31489e-05
1.311e-05
1.3071e-05
1.3032e-05
1.29931e-05
1.29541e-05
1.29152e-05
1.28762e-05
1.28372e-05
1.27983e-05
1.27593e-05
1.27204e-05
1.26814e-05
1.26424e-05
1.26035e-05
1.25645e-05
1.25256e-05
1.24866e-05
1.24476e-05
1.24087e-05
1.23697e-05
1.23308e-05
1.22918e-05
1.22528e-05
1.22139e-05
1.21749e-05
1.2136e-05
1.2097e-05
1.2058e-05
1.20191e-05
1.19801e-05
1.19412e-05
1.19022e-05
1.18632e-05
1.18243e-05
1.17853e-05
1.17464e-05
1.17074e-05
1.16685e-05
1.16295e-05
1.15905e-05
1.15516e-05
1.15126e-05
1.14737e-05
1.14347e-05
1.13957e-05
1.13568e-05
1.13178e-05
1.12789e-05
1.12399e-05
1.12009e-05
1.1162e-05
1.1123e-05
1.10841e-05
1.10451e-05
1.10061e-05
1.09672e-05
1.09282e-05
1.08893e-05
1.08503e-05
1.08113e-05
1.07724e-05
1.07334e-05
1.06945e-05
1.06555e-05
1.06165e-05
1.05776e-05
1.05386e-05
1.04997e-05
1.04607e-05
1.04217e-05
1.03828e-05
1.03438e-05
1.03049e-05
1.02659e-05
1.0227e-05
1.0188e-05
1.0149e-05
1.01101e-05
1.00711e-05
1.00322e-05
9.99319e-06
9.95423e-06
9.91527e-06
9.87631e-06
9.83736e-06
9.7984e-06
9.75944e-06
9.72048e-06
9.68152e-06
9.64256e-06
9.6036e-06
9.56464e-06
9.52568e-06
9.48672e-06
9.44776e-06
9.4088e-06
9.36984e-06
9.33088e-06
9.29192e-06
9.25296e-06
9.214e-06
9.17504e-06
9.13608e-06
9.09713e-06
9.05817e-06
9.01921e-06
8.98025e-06
8.94129e-06
8.90233e-06
8.86337e-06
8.82441e-06
8.78545e-06
8.74649e-06
8.70753e-06
8.66857e-06
8.62962e-06
8.59063e-06
8.55174e-06
8.51263e-06
8.47401e-06
8.43425e-06
8.39752e-06
8.35177e-06
8.33987e-06
8.32286e-06
8.31986e-06
8.28354e-06
8.25081e-06
8.21482e-06
8.17986e-06
8.14443e-06
8.1092e-06
8.07388e-06
8.03861e-06
8.00331e-06
7.96802e-06
7.93273e-06
7.89745e-06
7.86216e-06
7.82687e-06
7.79158e-06
7.75629e-06
7.721e-06
7.68571e-06
7.65042e-06
7.61513e-06
7.57984e-06
7.54455e-06
7.50927e-06
7.47398e-06
7.43869e-06
7.4034e-06
7.36811e-06
7.33282e-06
7.29753e-06
7.26224e-06
7.22695e-06
7.19166e-06
7.15637e-06
7.12108e-06
7.0858e-06
7.05051e-06
7.01522e-06
6.97993e-06
6.94464e-06
6.90935e-06
6.87406e-06
6.83877e-06
6.80348e-06
6.76819e-06
6.7329e-06
6.69761e-06
6.66233e-06
6.62704e-06
6.59175e-06
6.55646e-06
6.52117e-06
6.48588e-06
6.45059e-06
6.4153e-06
6.38001e-06
6.34472e-06
6.30943e-06
6.27414e-06
6.23886e-06
6.20357e-06
6.16828e-06
6.13299e-06
6.0977e-06
6.06241e-06
6.02712e-06
5.99183e-06
5.95654e-06
5.92125e-06
5.88596e-06
5.85067e-06
5.81539e-06
5.7801e-06
5.74481e-06
5.70952e-06
5.67423e-06
5.63894e-06
5.60365e-06
5.56836e-06
5.53307e-06
5.49778e-06
5.46249e-06
5.4272e-06
5.39192e-06
5.35663e-06
5.32134e-06
5.28605e-06
5.25076e-06
5.21547e-06
5.18018e-06
5.14489e-06
5.1096e-06
5.07432e-06
5.03901e-06
5.00378e-06
4.96835e-06
4.93336e-06
4.89738e-06
4.86401e-06
4.82277e-06
4.81186e-06
4.78798e-06
4.76004e-06
4.73303e-06
4.70512e-06
4.67758e-06
4.64986e-06
4.62223e-06
4.59455e-06
4.5669e-06
4.53923e-06
4.51157e-06
4.48391e-06
4.45625e-06
4.42858e-06
4.40092e-06
4.37326e-06
4.3456e-06
4.31794e-06
4.29027e-06
4.26261e-06
4.23495e-06
4.20729e-06
4.17963e-06
4.15196e-06
4.1243e-06
4.09664e-06
4.06898e-06
4.04132e-06
4.01365e-06
3.98599e-06
3.95833e-06
3.93067e-06
3.90301e-06
3.87534e-06
3.84768e-06
3.82002e-06
3.79236e-06
3.7647e-06
3.73703e-06
3.70937e-06
3.68171e-06
3.65405e-06
3.62639e-06
3.59872e-06
3.57106e-06
3.5434e-06
3.51574e-06
3.48808e-06
3.46041e-06
3.43275e-06