/*--------------------------------*- C++ -*----------------------------------*\
| =========                 |                                                 |
| \\      /  F ield         | OpenFOAM: The Open Source CFD Toolbox           |
|  \\    /   O peration     | Version:  v1712                                 |
|   \\  /    A nd           | Web:      www.OpenFOAM.com                      |
|    \\/     M anipulation  |                                                 |
\*---------------------------------------------------------------------------*/
FoamFile
{
    version     2.0;
    format      ascii;
    class       volVectorField;
    location    "0.5";
    object      U;
}
// * * * * * * * * * * * * * * * * * * * * * * * * * * * * * * * * * * * * * //

dimensions      [0 1 -1 0 0 0 0];


internalField   nonuniform List<vector> 
25000
(
(-1.00263e-08 1.12932e-09 9.82217e-36)
(1.55056e-08 -1.86078e-09 -1.23622e-33)
(5.83784e-08 -1.1234e-09 -2.38148e-33)
(2.0603e-07 -8.80277e-09 -1.12542e-32)
(3.42151e-07 -1.44814e-09 -2.32773e-32)
(3.57004e-07 -1.0731e-09 3.05827e-33)
(3.66594e-07 1.49034e-10 1.38253e-33)
(3.64074e-07 -9.76765e-11 -4.50637e-32)
(3.65067e-07 4.76031e-11 -4.5288e-32)
(3.64515e-07 -1.87352e-11 1.56263e-33)
(3.64733e-07 9.06282e-12 -4.34983e-32)
(3.6463e-07 -3.92497e-12 -1.32383e-31)
(3.64675e-07 1.77471e-12 -8.59425e-32)
(3.64655e-07 -7.92495e-13 3.12667e-33)
(3.64664e-07 3.54003e-13 1.69795e-33)
(3.6466e-07 -1.59181e-13 0)
(3.64662e-07 7.07276e-14 -1.80713e-31)
(3.64661e-07 -3.16299e-14 -9.03563e-32)
(3.64661e-07 1.48151e-14 9.03565e-32)
(3.64661e-07 -5.45359e-15 0)
(3.64661e-07 3.64264e-15 9.17853e-32)
(3.64661e-07 -7.77147e-16 -4.46823e-31)
(3.64661e-07 3.79424e-16 -5.38742e-31)
(3.64661e-07 -1.01296e-15 -1.56338e-33)
(3.64661e-07 -1.00249e-15 -1.42883e-33)
(3.64661e-07 -1.20018e-15 0)
(3.64661e-07 -6.60646e-16 1.83436e-31)
(3.64661e-07 -1.17219e-16 1.83436e-31)
(3.64661e-07 5.1855e-16 1.56338e-33)
(3.64661e-07 8.89792e-16 4.55559e-33)
(3.64661e-07 8.09644e-16 2.85766e-33)
(3.64661e-07 4.90148e-16 1.83436e-31)
(3.64661e-07 -1.08478e-16 2.99221e-33)
(3.64661e-07 -6.03453e-16 -1.80578e-31)
(3.64661e-07 -8.40065e-16 1.56338e-33)
(3.64661e-07 -8.19579e-16 1.3455e-34)
(3.64661e-07 -4.53978e-16 -1.29428e-33)
(3.64661e-07 -5.60379e-17 1.56338e-33)
(3.64661e-07 2.93016e-16 -1.80578e-31)
(3.64661e-07 4.55838e-16 -5.43164e-31)
(3.64661e-07 3.69576e-16 -3.64149e-31)
(3.64661e-07 1.90835e-16 -3.64149e-31)
(3.64661e-07 8.87867e-18 7.6822e-42)
(3.64661e-07 -8.24461e-17 3.61022e-31)
(3.64661e-07 2.71891e-17 3.61157e-31)
(3.64661e-07 1.85462e-16 3.61291e-31)
(3.64661e-07 3.47979e-16 3.62585e-31)
(3.64661e-07 4.06524e-16 3.62585e-31)
(3.64661e-07 2.07495e-16 -1.3455e-34)
(3.64661e-07 -6.0513e-17 -1.3455e-34)
(3.64661e-07 -4.7032e-16 -3.61022e-31)
(3.64661e-07 -7.60013e-16 -3.61022e-31)
(3.64661e-07 -8.37905e-16 1.56338e-33)
(3.64661e-07 -7.42927e-16 7.23877e-31)
(3.64661e-07 -3.2695e-16 7.25306e-31)
(3.64661e-07 9.18161e-17 2.99221e-33)
(3.64661e-07 5.68754e-16 -3.59728e-31)
(3.64661e-07 8.57618e-16 -3.59728e-31)
(3.64661e-07 9.15311e-16 0)
(3.64661e-07 7.78086e-16 -1.3455e-34)
(3.64661e-07 4.17373e-16 -3.59728e-31)
(3.64661e-07 3.9129e-17 -3.59593e-31)
(3.64661e-07 -3.15193e-16 1.56338e-33)
(3.64661e-07 -5.16956e-16 1.56338e-33)
(3.64661e-07 -5.18413e-16 7.23877e-31)
(3.64661e-07 -3.85384e-16 7.23877e-31)
(3.64661e-07 -1.31036e-16 -1.3455e-34)
(3.64661e-07 9.8252e-17 2.85777e-45)
(3.64661e-07 2.48954e-16 7.22448e-31)
(3.64661e-07 2.84386e-16 1.08347e-30)
(3.64661e-07 1.79129e-16 7.22313e-31)
(3.64661e-07 3.04422e-17 7.22313e-31)
(3.64661e-07 -1.28235e-16 3.12676e-33)
(3.64661e-07 -2.24446e-16 -3.56601e-31)
(3.64661e-07 -2.04928e-16 1.42883e-33)
(3.64661e-07 -1.38584e-16 -1.3455e-34)
(3.64661e-07 2.2877e-17 -1.3455e-34)
(3.64661e-07 6.92523e-17 1.56338e-33)
(3.64661e-07 2.48343e-16 1.56338e-33)
(3.64661e-07 -8.54144e-17 2.99221e-33)
(3.64661e-07 5.01841e-16 2.85766e-33)
(3.64661e-07 -1.12646e-15 -7.20884e-31)
(3.64661e-07 2.20481e-15 -1.4432e-30)
(3.64661e-07 -5.41146e-15 -7.22448e-31)
(3.64661e-07 1.16336e-14 0)
(3.64661e-07 -2.62423e-14 0)
(3.64661e-07 5.87012e-14 2.9922e-33)
(3.64662e-07 -1.30872e-13 -7.19325e-31)
(3.64659e-07 2.93008e-13 -7.2543e-31)
(3.64666e-07 -6.54193e-13 -3.12686e-33)
(3.64649e-07 1.46498e-12 2.99199e-33)
(3.64687e-07 -3.26983e-12 3.12724e-33)
(3.64602e-07 7.34448e-12 1.34503e-34)
(3.648e-07 -1.67688e-11 1.4428e-30)
(3.64351e-07 3.60209e-11 2.16135e-30)
(3.65733e-07 -1.0324e-10 7.28777e-31)
(3.62456e-07 1.78026e-10 0)
(3.751e-07 -7.49764e-10 4.2593e-33)
(3.05438e-07 5.67162e-09 2.78853e-43)
(2.79719e-07 -3.53921e-09 -6.94285e-34)
(3.54333e-07 -1.23607e-09 -1.28786e-33)
(3.7179e-07 -6.93196e-10 7.35907e-31)
(3.78767e-07 -5.43182e-11 7.53632e-31)
(3.78796e-07 -4.21241e-11 -1.39804e-34)
(3.79131e-07 1.04462e-11 -1.39954e-34)
(3.78988e-07 -4.76553e-12 1.48489e-33)
(3.79041e-07 2.36238e-12 -7.47728e-31)
(3.79014e-07 -9.80428e-13 3.10996e-33)
(3.79025e-07 4.53798e-13 7.52398e-31)
(3.7902e-07 -2.00867e-13 1.39848e-34)
(3.79022e-07 8.99854e-14 1.39849e-34)
(3.79021e-07 -4.02941e-14 3.11004e-33)
(3.79022e-07 1.81107e-14 3.11005e-33)
(3.79022e-07 -7.89804e-15 7.47648e-31)
(3.79022e-07 3.81731e-15 -7.54008e-31)
(3.79022e-07 -1.40247e-15 -1.50166e-30)
(3.79022e-07 8.78043e-16 0)
(3.79022e-07 -2.42127e-16 1.39849e-34)
(3.79022e-07 1.43642e-16 7.50898e-31)
(3.79022e-07 -1.25541e-16 7.50898e-31)
(3.79022e-07 -4.92524e-17 1.50328e-30)
(3.79022e-07 -7.83141e-17 1.4851e-33)
(3.79022e-07 -2.02459e-17 3.24989e-33)
(3.79022e-07 1.27319e-17 1.50491e-30)
(3.79022e-07 4.37914e-17 1.4851e-33)
(3.79022e-07 5.27503e-17 1.4851e-33)
(3.79022e-07 4.71004e-17 0)
(3.79022e-07 3.17822e-17 0)
(3.79022e-07 2.18795e-17 3.24989e-33)
(3.79022e-07 1.34476e-17 6.35994e-33)
(3.79022e-07 1.22159e-17 3.11004e-33)
(3.79022e-07 1.10208e-17 1.4851e-33)
(3.79022e-07 3.09939e-18 1.4851e-33)
(3.79022e-07 -5.80745e-18 -1.50166e-30)
(3.79022e-07 -1.7474e-17 -1.49855e-30)
(3.79022e-07 -2.42464e-17 3.11004e-33)
(3.79022e-07 -1.42682e-17 0)
(3.79022e-07 -3.71604e-20 -7.50758e-31)
(3.79022e-07 3.1558e-17 7.50898e-31)
(3.79022e-07 5.54296e-17 1.50463e-30)
(3.79022e-07 7.18128e-17 2.97019e-33)
(3.79022e-07 7.22966e-17 0)
(3.79022e-07 5.03566e-17 -1.4851e-33)
(3.79022e-07 2.07768e-17 -1.4851e-33)
(3.79022e-07 -1.01963e-17 4.73499e-33)
(3.79022e-07 -3.13057e-17 1.50653e-30)
(3.79022e-07 -2.44525e-17 1.50017e-30)
(3.79022e-07 -4.57983e-18 -1.50003e-30)
(3.79022e-07 3.4528e-17 -7.47648e-31)
(3.79022e-07 6.66547e-17 6.22009e-33)
(3.79022e-07 7.88738e-17 -7.44538e-31)
(3.79022e-07 6.97276e-17 -1.50152e-30)
(3.79022e-07 3.02274e-17 -3.00317e-30)
(3.79022e-07 -1.28596e-17 -1.5018e-30)
(3.79022e-07 -5.00929e-17 -1.49706e-30)
(3.79022e-07 -6.59422e-17 -1.49855e-30)
(3.79022e-07 -4.71567e-17 -1.39849e-34)
(3.79022e-07 -1.46068e-17 1.50314e-30)
(3.79022e-07 3.20307e-17 3.00317e-30)
(3.79022e-07 6.44598e-17 1.50625e-30)
(3.79022e-07 7.36807e-17 4.73499e-33)
(3.79022e-07 6.16943e-17 -1.39849e-34)
(3.79022e-07 2.64653e-17 2.98399e-45)
(3.79022e-07 -9.3496e-18 1.50166e-30)
(3.79022e-07 -3.4614e-17 4.59514e-33)
(3.79022e-07 -4.31821e-17 -1.49692e-30)
(3.79022e-07 -2.4645e-17 -1.39849e-34)
(3.79022e-07 1.91532e-18 -1.62495e-33)
(3.79022e-07 3.33675e-17 -1.34525e-33)
(3.79022e-07 5.26743e-17 5.01469e-33)
(3.79022e-07 5.32576e-17 4.87484e-33)
(3.79022e-07 3.91525e-17 1.62495e-33)
(3.79022e-07 1.58917e-17 -1.49664e-30)
(3.79022e-07 -6.74031e-18 -1.49827e-30)
(3.79022e-07 -1.63697e-17 -1.50152e-30)
(3.79022e-07 -1.70667e-17 1.39849e-34)
(3.79022e-07 -3.34715e-18 1.50166e-30)
(3.79022e-07 1.21668e-17 3.11004e-33)
(3.79022e-07 2.99225e-17 3.11004e-33)
(3.79022e-07 4.09413e-17 1.50152e-30)
(3.79022e-07 4.98982e-17 1.50166e-30)
(3.79022e-07 4.98224e-17 -1.50152e-30)
(3.79022e-07 4.72272e-17 -1.49706e-30)
(3.79022e-07 3.65952e-17 4.59514e-33)
(3.79022e-07 1.89223e-17 -1.39849e-34)
(3.79022e-07 7.00664e-19 -1.5018e-30)
(3.79022e-07 -1.96923e-17 -1.50166e-30)
(3.79022e-07 -2.87118e-17 -1.50152e-30)
(3.79022e-07 -1.96385e-17 -1.49975e-30)
(3.79022e-07 -5.46618e-19 -3.00141e-30)
(3.79022e-07 4.15038e-17 -2.99992e-30)
(3.79022e-07 7.21686e-17 3.11004e-33)
(3.79022e-07 9.13378e-17 1.50152e-30)
(3.79022e-07 8.49561e-17 1.50166e-30)
(3.79022e-07 3.61571e-17 0)
(3.79022e-07 -1.60799e-17 0)
(3.79022e-07 -7.57463e-17 0)
(3.79022e-07 -1.02681e-16 -1.5018e-30)
(3.79022e-07 -7.15956e-17 -2.79698e-34)
(3.79022e-07 -1.51662e-17 1.50152e-30)
(3.79022e-07 8.52691e-17 1.50152e-30)
(3.79022e-07 1.60103e-16 -3.17111e-41)
(3.79022e-07 1.7874e-16 3.19081e-41)
(3.79022e-07 1.54142e-16 1.50138e-30)
(3.79022e-07 3.07204e-17 -1.50477e-30)
(3.79022e-07 -8.10297e-17 -2.97019e-33)
(3.79022e-07 -1.92021e-16 3.0048e-30)
(3.79022e-07 -2.39491e-16 1.50328e-30)
(3.79022e-07 -1.80116e-16 3.24989e-33)
(3.79022e-07 -8.98151e-17 -3.00331e-30)
(3.79022e-07 5.2542e-17 -4.50808e-30)
(3.79022e-07 1.52683e-16 -1.5018e-30)
(3.79022e-07 1.66354e-16 2.97019e-33)
(3.79022e-07 1.28482e-16 3.11004e-33)
(3.79022e-07 2.4134e-18 -3.11004e-33)
(3.79022e-07 -1.14132e-16 -1.50491e-30)
(3.79022e-07 -1.71049e-16 -3.00345e-30)
(3.79022e-07 -1.76908e-16 -1.50166e-30)
(3.79022e-07 -5.65429e-17 1.39849e-34)
(3.79022e-07 8.30425e-17 -2.9702e-33)
(3.79022e-07 2.22606e-16 -3.24989e-33)
(3.79022e-07 3.16972e-16 -1.39849e-34)
(3.79022e-07 2.85462e-16 -1.50477e-30)
(3.79022e-07 1.88583e-16 -1.50477e-30)
(3.79022e-07 2.30809e-17 -3.11004e-33)
(3.79022e-07 -1.5011e-16 -2.97019e-33)
(3.79022e-07 -2.5905e-16 3.00345e-30)
(3.79022e-07 -2.89826e-16 3.00317e-30)
(3.79022e-07 -2.28955e-16 -1.39849e-34)
(3.79022e-07 -8.23885e-17 3.00006e-30)
(3.79022e-07 9.49707e-17 2.99992e-30)
(3.79022e-07 2.38314e-16 1.50166e-30)
(3.79022e-07 3.5894e-16 1.50194e-30)
(3.79022e-07 3.28943e-16 3.00331e-30)
(3.79022e-07 2.36438e-16 3.00317e-30)
(3.79022e-07 6.74498e-17 -3.00331e-30)
(3.79022e-07 -1.69897e-16 -3.00331e-30)
(3.79022e-07 -2.89413e-16 -1.50152e-30)
(3.79022e-07 -3.65176e-16 -1.50152e-30)
(3.79022e-07 -2.83906e-16 -1.50166e-30)
(3.79022e-07 -5.79507e-18 1.50166e-30)
(3.79022e-07 2.47796e-16 1.50166e-30)
(3.79022e-07 5.94413e-16 -1.50152e-30)
(3.79022e-07 7.42099e-16 2.79698e-34)
(3.79022e-07 5.98314e-16 -2.95972e-45)
(3.79022e-07 3.18709e-16 -1.39849e-34)
(3.79022e-07 -3.52375e-16 -1.39849e-34)
(3.79022e-07 -8.77136e-16 -2.79698e-34)
(3.79022e-07 -1.25798e-15 3.00317e-30)
(3.79022e-07 -1.31504e-15 3.00317e-30)
(3.79022e-07 -7.43612e-16 -2.79698e-34)
(3.79022e-07 -7.26226e-17 -1.39849e-34)
(3.79022e-07 8.58416e-16 3.00331e-30)
(3.79022e-07 1.48527e-15 3.00345e-30)
(3.79022e-07 1.58427e-15 3.00331e-30)
(3.79022e-07 1.34338e-15 3.00331e-30)
(3.79022e-07 4.52348e-16 -2.97788e-45)
(3.79022e-07 -3.8084e-16 2.96581e-45)
(3.79022e-07 -1.18213e-15 -1.50166e-30)
(3.79022e-07 -1.60978e-15 -3.00331e-30)
(3.79022e-07 -1.44357e-15 -3.00303e-30)
(3.79022e-07 -1.02603e-15 1.39849e-34)
(3.79022e-07 -2.32499e-16 -1.50152e-30)
(3.79022e-07 4.4252e-16 -3.00317e-30)
(3.79022e-07 8.74731e-16 0)
(3.79022e-07 1.00511e-15 0)
(3.79022e-07 7.01273e-16 0)
(3.79022e-07 2.78969e-16 3.00317e-30)
(3.79022e-07 -1.50843e-16 3.00317e-30)
(3.79022e-07 -4.23737e-16 0)
(3.79022e-07 -3.31491e-16 0)
(3.79022e-07 -8.4719e-17 0)
(3.79022e-07 2.88556e-16 1.5018e-30)
(3.79022e-07 5.60868e-16 1.50194e-30)
(3.79022e-07 5.32468e-16 1.39849e-34)
(3.79022e-07 1.85179e-16 -1.50166e-30)
(3.79022e-07 -1.2646e-16 3.18467e-41)
(3.79022e-07 -1.16354e-15 1.50166e-30)
(3.79022e-07 -2.2888e-16 0)
(3.79022e-07 -2.89074e-15 3.00317e-30)
(3.79022e-07 3.50778e-15 3.00317e-30)
(3.79022e-07 -9.24721e-15 1.50166e-30)
(3.79022e-07 2.09983e-14 1.50152e-30)
(3.79022e-07 -4.51309e-14 -1.39849e-34)
(3.79021e-07 1.03268e-13 1.48509e-33)
(3.79023e-07 -2.28815e-13 1.34526e-33)
(3.79018e-07 5.12518e-13 -1.50176e-30)
(3.79031e-07 -1.1452e-12 -1.50173e-30)
(3.79001e-07 2.56187e-12 -1.39833e-34)
(3.79067e-07 -5.71624e-12 -1.50204e-30)
(3.78919e-07 1.2841e-11 -1.50051e-30)
(3.79256e-07 -2.89089e-11 -4.51053e-30)
(3.78505e-07 6.30097e-11 -4.49109e-30)
(3.8059e-07 -1.67331e-10 1.51497e-30)
(3.76471e-07 2.6933e-10 2.96356e-30)
(3.93173e-07 -1.26988e-09 1.66268e-30)
(3.28136e-07 6.08653e-09 -2.21963e-46)
(2.13309e-07 2.14296e-09 -5.81909e-47)
(1.57041e-07 2.51039e-09 -2.80023e-35)
(2.12544e-07 -5.73035e-09 -5.77249e-35)
(3.15229e-07 -1.65006e-09 0)
(3.35641e-07 -8.48499e-10 1.33632e-30)
(3.43587e-07 -1.59708e-11 4.11552e-30)
(3.43028e-07 -5.46297e-11 2.71844e-30)
(3.43498e-07 1.93628e-11 -1.26835e-34)
(3.43256e-07 -7.87706e-12 0)
(3.43346e-07 3.92589e-12 0)
(3.43301e-07 -1.65642e-12 0)
(3.4332e-07 7.58272e-13 0)
(3.43312e-07 -3.36889e-13 1.34517e-33)
(3.43316e-07 1.51407e-13 -5.43932e-30)
(3.43314e-07 -6.70003e-14 -2.72171e-30)
(3.43315e-07 3.05934e-14 -1.47186e-33)
(3.43314e-07 -1.34391e-14 -2.72037e-30)
(3.43314e-07 5.73207e-15 1.47186e-33)
(3.43314e-07 -3.29869e-15 1.47186e-33)
(3.43314e-07 5.52811e-16 -1.26674e-34)
(3.43314e-07 -1.10204e-15 2.72025e-30)
(3.43314e-07 7.1729e-18 2.72037e-30)
(3.43314e-07 -2.98105e-17 1.26674e-34)
(3.43314e-07 4.09162e-16 2.53348e-34)
(3.43314e-07 4.82246e-16 2.53348e-34)
(3.43314e-07 4.3779e-16 2.72037e-30)
(3.43314e-07 2.60831e-16 -5.78108e-41)
(3.43314e-07 -7.15176e-18 -2.72025e-30)
(3.43314e-07 -2.30097e-16 -2.72025e-30)
(3.43314e-07 -3.22477e-16 -5.44062e-30)
(3.43314e-07 -3.10546e-16 1.26674e-34)
(3.43314e-07 -1.43977e-16 1.26674e-34)
(3.43314e-07 2.91814e-17 -2.72025e-30)
(3.43314e-07 1.53559e-16 1.26674e-34)
(3.43314e-07 1.97046e-16 2.72025e-30)
(3.43314e-07 9.72378e-17 2.72025e-30)
(3.43314e-07 -2.28156e-17 0)
(3.43314e-07 -1.29185e-16 1.34519e-33)
(3.43314e-07 -1.7015e-16 2.72159e-30)
(3.43314e-07 -7.2905e-17 5.43915e-30)
(3.43314e-07 4.87317e-17 2.71903e-30)
(3.43314e-07 1.75064e-16 2.72037e-30)
(3.43314e-07 2.36881e-16 2.72025e-30)
(3.43314e-07 1.28995e-16 0)
(3.43314e-07 -2.26741e-17 0)
(3.43314e-07 -2.42519e-16 -2.72037e-30)
(3.43314e-07 -3.92256e-16 -1.26674e-34)
(3.43314e-07 -3.63118e-16 2.72025e-30)
(3.43314e-07 -2.33179e-16 -1.84335e-45)
(3.43314e-07 5.48307e-17 1.26674e-34)
(3.43314e-07 3.1117e-16 1.26674e-34)
(3.43314e-07 4.34684e-16 0)
(3.43314e-07 4.17161e-16 1.47186e-33)
(3.43314e-07 1.70323e-16 2.72172e-30)
(3.43314e-07 -1.12248e-16 2.72012e-30)
(3.43314e-07 -3.5787e-16 1.34519e-33)
(3.43314e-07 -4.65966e-16 1.59854e-33)
(3.43314e-07 -3.3592e-16 -2.72012e-30)
(3.43314e-07 -1.0513e-16 5.80441e-41)
(3.43314e-07 1.87459e-16 -1.26674e-34)
(3.43314e-07 3.85789e-16 -2.72037e-30)
(3.43314e-07 3.9557e-16 -2.72025e-30)
(3.43314e-07 2.6556e-16 -5.44049e-30)
(3.43314e-07 5.54652e-18 -1.26674e-34)
(3.43314e-07 -2.28471e-16 -1.26674e-34)
(3.43314e-07 -3.57747e-16 -2.72025e-30)
(3.43314e-07 -3.54913e-16 0)
(3.43314e-07 -1.93129e-16 0)
(3.43314e-07 -7.36439e-19 0)
(3.43314e-07 1.97563e-16 0)
(3.43314e-07 3.00276e-16 -1.47186e-33)
(3.43314e-07 2.93051e-16 -1.47186e-33)
(3.43314e-07 2.10692e-16 2.72037e-30)
(3.43314e-07 6.51804e-17 2.72037e-30)
(3.43314e-07 -6.62318e-17 2.72037e-30)
(3.43314e-07 -1.42876e-16 5.44062e-30)
(3.43314e-07 -1.75391e-16 2.72025e-30)
(3.43314e-07 -1.05063e-16 2.72025e-30)
(3.43314e-07 -3.63536e-17 -1.26674e-34)
(3.43314e-07 1.01551e-16 -1.26674e-34)
(3.43314e-07 9.12451e-17 2.72172e-30)
(3.43314e-07 2.97662e-16 1.47186e-33)
(3.43314e-07 -1.9275e-16 -2.72025e-30)
(3.43314e-07 7.40434e-16 -5.44049e-30)
(3.43314e-07 -1.63319e-15 -2.72025e-30)
(3.43314e-07 3.40198e-15 1.26674e-34)
(3.43314e-07 -8.00355e-15 -2.68087e-45)
(3.43314e-07 1.74604e-14 -2.72172e-30)
(3.43315e-07 -3.93296e-14 -2.72172e-30)
(3.43314e-07 8.77671e-14 2.70286e-45)
(3.43316e-07 -1.9613e-13 2.5335e-34)
(3.43311e-07 4.38513e-13 -5.44038e-30)
(3.43322e-07 -9.79689e-13 -2.72038e-30)
(3.43297e-07 2.19224e-12 2.72021e-30)
(3.43353e-07 -4.89219e-12 -1.34552e-33)
(3.43227e-07 1.09828e-11 -2.81532e-33)
(3.43515e-07 -2.47617e-11 -1.34661e-33)
(3.4287e-07 5.40256e-11 -2.7124e-30)
(3.44651e-07 -1.42289e-10 -2.7433e-30)
(3.40941e-07 2.42659e-10 -2.6858e-30)
(3.5501e-07 -1.02997e-09 -2.99183e-30)
(2.96523e-07 5.32544e-09 0)
(2.22334e-07 -1.63853e-10 -1.33046e-30)
(2.48102e-07 -1.07999e-09 -1.86609e-30)
(2.64745e-07 -2.51773e-10 2.0901e-30)
(2.6762e-07 -1.7414e-10 2.11841e-30)
(2.69266e-07 1.35481e-11 4.2743e-30)
(2.68992e-07 -1.7576e-11 4.26141e-30)
(2.69169e-07 6.66206e-12 0)
(2.6909e-07 -3.00262e-12 0)
(2.69124e-07 1.3779e-12 9.9304e-35)
(2.69108e-07 -6.06369e-13 -2.13213e-30)
(2.69115e-07 2.73491e-13 -2.13245e-30)
(2.69112e-07 -1.21871e-13 2.1323e-30)
(2.69113e-07 5.47268e-14 2.13242e-30)
(2.69113e-07 -2.44446e-14 0)
(2.69113e-07 1.08244e-14 -2.13241e-30)
(2.69113e-07 -5.06114e-15 -2.13241e-30)
(2.69113e-07 2.01914e-15 9.92955e-35)
(2.69113e-07 -1.05384e-15 9.92955e-35)
(2.69113e-07 4.81791e-16 0)
(2.69113e-07 -3.21985e-17 -1.15374e-33)
(2.69113e-07 3.19469e-16 -1.05445e-33)
(2.69113e-07 1.60215e-16 1.98591e-34)
(2.69113e-07 1.31381e-16 1.98591e-34)
(2.69113e-07 -4.6167e-17 6.39723e-30)
(2.69113e-07 -1.66164e-16 6.39723e-30)
(2.69113e-07 -2.55664e-16 9.92955e-35)
(2.69113e-07 -2.68299e-16 -1.15374e-33)
(2.69113e-07 -1.91615e-16 -3.36194e-33)
(2.69113e-07 -7.5468e-17 -2.13452e-30)
(2.69113e-07 7.28603e-17 -2.13241e-30)
(2.69113e-07 1.85553e-16 -1.98591e-34)
(2.69113e-07 2.47684e-16 2.11006e-45)
(2.69113e-07 2.3677e-16 9.92955e-35)
(2.69113e-07 1.53982e-16 -2.13241e-30)
(2.69113e-07 4.25267e-17 -2.13231e-30)
(2.69113e-07 -8.77172e-17 9.92955e-35)
(2.69113e-07 -1.69157e-16 0)
(2.69113e-07 -2.00827e-16 2.13231e-30)
(2.69113e-07 -1.67834e-16 4.26462e-30)
(2.69113e-07 -7.45147e-17 2.13231e-30)
(2.69113e-07 2.21455e-17 0)
(2.69113e-07 1.15535e-16 -4.26462e-30)
(2.69113e-07 1.58596e-16 -4.26462e-30)
(2.69113e-07 1.27173e-16 0)
(2.69113e-07 6.52023e-17 2.13116e-30)
(2.69113e-07 -6.01544e-17 2.13106e-30)
(2.69113e-07 -1.58185e-16 -2.13251e-30)
(2.69113e-07 -2.20936e-16 -2.13241e-30)
(2.69113e-07 -2.34926e-16 9.92955e-35)
(2.69113e-07 -1.45367e-16 9.92955e-35)
(2.69113e-07 -4.40885e-17 0)
(2.69113e-07 9.64674e-17 0)
(2.69113e-07 1.93059e-16 -2.13452e-30)
(2.69113e-07 2.13455e-16 -2.13452e-30)
(2.69113e-07 1.80546e-16 0)
(2.69113e-07 7.61234e-17 0)
(2.69113e-07 -2.45029e-17 -2.13231e-30)
(2.69113e-07 -7.99197e-17 -2.13221e-30)
(2.69113e-07 -8.45924e-17 -2.11006e-45)
(2.69113e-07 -9.56664e-18 -1.98591e-34)
(2.69113e-07 7.70947e-17 -2.13241e-30)
(2.69113e-07 1.31023e-16 9.92955e-35)
(2.69113e-07 1.34907e-16 2.13241e-30)
(2.69113e-07 3.05406e-17 -2.13231e-30)
(2.69113e-07 -9.66981e-17 -4.26462e-30)
(2.69113e-07 -2.34441e-16 -2.13231e-30)
(2.69113e-07 -3.14644e-16 4.26472e-30)
(2.69113e-07 -2.68736e-16 4.26482e-30)
(2.69113e-07 -1.61942e-16 -4.26472e-30)
(2.69113e-07 5.02494e-17 -4.26482e-30)
(2.69113e-07 2.31845e-16 2.1301e-30)
(2.69113e-07 3.66688e-16 2.12905e-30)
(2.69113e-07 4.0157e-16 -1.05445e-33)
(2.69113e-07 3.10429e-16 -9.92955e-35)
(2.69113e-07 1.49141e-16 -4.26482e-30)
(2.69113e-07 -2.16351e-17 -4.26462e-30)
(2.69113e-07 -2.22617e-16 9.92955e-35)
(2.69113e-07 -1.63077e-16 2.20819e-33)
(2.69113e-07 -3.93614e-16 2.1089e-33)
(2.69113e-07 2.99786e-16 -1.25304e-33)
(2.69113e-07 -8.45453e-16 -1.25304e-33)
(2.69113e-07 2.12168e-15 -2.13241e-30)
(2.69113e-07 -4.22759e-15 -2.13241e-30)
(2.69113e-07 1.00181e-14 2.13231e-30)
(2.69113e-07 -2.202e-14 2.13251e-30)
(2.69112e-07 4.92695e-14 -2.10145e-45)
(2.69114e-07 -1.10389e-13 2.13233e-30)
(2.69111e-07 2.46244e-13 2.13132e-30)
(2.69117e-07 -5.50813e-13 -1.05449e-33)
(2.69103e-07 1.23075e-12 0)
(2.69135e-07 -2.75046e-12 9.93125e-35)
(2.69064e-07 6.14981e-12 -2.09204e-45)
(2.69221e-07 -1.37287e-11 2.12047e-45)
(2.6887e-07 3.07554e-11 -2.11468e-45)
(2.69655e-07 -6.86183e-11 2.10177e-45)
(2.67916e-07 1.52081e-10 -1.98379e-33)
(2.72036e-07 -3.58539e-10 -2.18345e-30)
(2.64328e-07 6.65351e-10 -2.05779e-30)
(2.87705e-07 -2.26053e-09 -1.17052e-34)
(2.44636e-07 5.77463e-09 6.52242e-30)
(6.77333e-08 9.74771e-09 1.67917e-30)
(-2.04749e-08 9.97873e-11 -1.56019e-33)
(5.42034e-08 -1.73804e-08 -3.73547e-33)
(1.84207e-07 -3.11686e-08 -7.09167e-33)
(5.6517e-07 -6.59567e-08 -7.9079e-33)
(8.92034e-07 -2.24127e-08 -7.90746e-33)
(9.24488e-07 -6.42477e-09 2.88178e-33)
(9.48164e-07 -2.67895e-10 -5.73421e-32)
(9.42313e-07 -1.84183e-10 -1.18942e-31)
(9.44918e-07 1.11022e-10 -1.84055e-31)
(9.43591e-07 -2.98443e-11 -1.20158e-31)
(9.44135e-07 1.85219e-11 6.29784e-32)
(9.43882e-07 -7.3504e-12 6.50579e-32)
(9.43994e-07 3.41388e-12 1.2646e-31)
(9.43944e-07 -1.51825e-12 1.25568e-31)
(9.43967e-07 6.77288e-13 2.9943e-33)
(9.43957e-07 -3.0523e-13 -1.8226e-34)
(9.43961e-07 1.35315e-13 -2.41435e-31)
(9.43959e-07 -6.06649e-14 -2.41434e-31)
(9.4396e-07 2.83068e-14 -1.82261e-34)
(9.43959e-07 -1.05012e-14 -1.82261e-34)
(9.4396e-07 6.89596e-15 -1.20279e-31)
(9.4396e-07 -1.42947e-15 -8.54111e-31)
(9.4396e-07 9.5199e-16 -7.3365e-31)
(9.4396e-07 -1.46311e-15 -1.93548e-33)
(9.4396e-07 -1.22817e-15 -2.3e-33)
(9.4396e-07 -1.59162e-15 2.44428e-31)
(9.4396e-07 -6.82939e-16 2.44611e-31)
(9.4396e-07 1.42901e-17 0)
(9.4396e-07 8.58483e-16 2.11775e-33)
(9.4396e-07 1.31318e-15 6.35325e-33)
(9.4396e-07 1.0744e-15 4.2355e-33)
(9.4396e-07 6.71584e-16 9.78443e-31)
(9.4396e-07 -1.35644e-16 1.46766e-30)
(9.4396e-07 -7.04672e-16 4.89221e-31)
(9.4396e-07 -8.82048e-16 2.11774e-33)
(9.4396e-07 -8.19767e-16 4.05323e-33)
(9.4396e-07 -2.86621e-16 1.93549e-33)
(9.4396e-07 1.22757e-16 2.44611e-31)
(9.4396e-07 4.02317e-16 2.43734e-31)
(9.4396e-07 4.08397e-16 -1.05888e-33)
(9.4396e-07 7.35475e-17 3.86921e-45)
(9.4396e-07 -2.59307e-16 -3.87705e-45)
(9.4396e-07 -4.5877e-16 -4.89221e-31)
(9.4396e-07 -4.38719e-16 -4.89039e-31)
(9.4396e-07 -1.57149e-17 0)
(9.4396e-07 4.35459e-16 0)
(9.4396e-07 8.325e-16 9.80561e-31)
(9.4396e-07 1.02643e-15 9.79502e-31)
(9.4396e-07 6.87953e-16 -1.05887e-33)
(9.4396e-07 2.85645e-16 0)
(9.4396e-07 -4.14128e-16 -4.89221e-31)
(9.4396e-07 -9.2458e-16 1.04064e-41)
(9.4396e-07 -1.11359e-15 4.91339e-31)
(9.4396e-07 -1.1653e-15 9.80561e-31)
(9.4396e-07 -6.71896e-16 9.82679e-31)
(9.4396e-07 -2.77914e-16 4.2355e-33)
(9.4396e-07 3.2523e-16 1.05888e-33)
(9.4396e-07 7.2192e-16 8.76616e-34)
(9.4396e-07 8.78984e-16 -1.82261e-34)
(9.4396e-07 8.83393e-16 -1.82261e-34)
(9.4396e-07 5.29701e-16 -4.87468e-31)
(9.4396e-07 1.68606e-16 -4.87286e-31)
(9.4396e-07 -2.64138e-16 2.11775e-33)
(9.4396e-07 -5.45096e-16 3.17662e-33)
(9.4396e-07 -5.69113e-16 3.17662e-33)
(9.4396e-07 -4.48457e-16 2.11775e-33)
(9.4396e-07 -1.14082e-16 0)
(9.4396e-07 1.73367e-16 -1.82261e-34)
(9.4396e-07 3.60724e-16 9.78261e-31)
(9.4396e-07 4.0193e-16 9.78625e-31)
(9.4396e-07 2.28182e-16 9.78625e-31)
(9.4396e-07 3.2435e-17 1.46785e-30)
(9.4396e-07 -1.72325e-16 4.94516e-31)
(9.4396e-07 -2.84221e-16 7.22985e-33)
(9.4396e-07 -2.2512e-16 2.11775e-33)
(9.4396e-07 -1.47837e-16 -4.89404e-31)
(9.4396e-07 7.05938e-17 -4.89221e-31)
(9.4396e-07 8.62387e-17 2.30001e-33)
(9.4396e-07 3.62143e-16 2.11775e-33)
(9.4396e-07 -1.87011e-16 4.2355e-33)
(9.4396e-07 8.72239e-16 4.2355e-33)
(9.4396e-07 -1.85919e-15 -9.75449e-31)
(9.4396e-07 3.87339e-15 -1.95389e-30)
(9.4396e-07 -9.20045e-15 -1.95689e-30)
(9.43959e-07 1.99368e-14 -9.78625e-31)
(9.4396e-07 -4.50185e-14 -9.78809e-31)
(9.43959e-07 1.00433e-13 -9.74569e-31)
(9.43962e-07 -2.24194e-13 9.82502e-31)
(9.43955e-07 5.01949e-13 -2.077e-41)
(9.43971e-07 -1.11646e-12 -1.82267e-34)
(9.43934e-07 2.49986e-12 9.82248e-31)
(9.44016e-07 -5.55423e-12 4.05482e-33)
(9.43833e-07 1.1461e-11 -1.82199e-34)
(9.44262e-07 -2.9647e-11 2.93769e-30)
(9.43317e-07 1.96342e-11 2.93212e-30)
(9.46174e-07 -1.34467e-10 9.87328e-31)
(9.39003e-07 -5.4948e-11 9.67243e-31)
(9.61225e-07 5.4664e-09 7.40477e-33)
(7.97757e-07 2.94278e-08 7.0071e-33)
(7.48296e-07 -1.94154e-08 6.0064e-31)
(9.26911e-07 -1.48357e-08 9.53133e-31)
(9.64713e-07 -5.02857e-09 1.01827e-33)
(9.80567e-07 -9.13619e-10 -1.89822e-34)
(9.8052e-07 -1.79545e-10 3.04775e-30)
(9.81381e-07 1.47503e-11 4.07085e-30)
(9.81045e-07 -7.17458e-12 1.01895e-30)
(9.8118e-07 5.18922e-12 5.31299e-33)
(9.81114e-07 -1.73427e-12 1.02224e-30)
(9.81142e-07 8.90007e-13 1.0192e-30)
(9.81129e-07 -3.82561e-13 -1.89437e-34)
(9.81135e-07 1.72325e-13 -3.78879e-34)
(9.81133e-07 -7.73102e-14 4.21286e-33)
(9.81134e-07 3.45244e-14 2.03873e-30)
(9.81133e-07 -1.53358e-14 2.02992e-30)
(9.81133e-07 7.06743e-15 -2.03835e-30)
(9.81133e-07 -2.91837e-15 -3.05111e-30)
(9.81133e-07 1.49666e-15 -3.0513e-30)
(9.81133e-07 -5.63669e-16 -2.03744e-30)
(9.81133e-07 2.60641e-16 -3.11228e-33)
(9.81133e-07 -1.89595e-16 1.89439e-34)
(9.81133e-07 -1.73565e-17 1.01937e-30)
(9.81133e-07 -8.94539e-17 1.01955e-30)
(9.81133e-07 -2.23226e-17 2.03854e-30)
(9.81133e-07 -1.14946e-17 4.07249e-30)
(9.81133e-07 7.46886e-18 2.03945e-30)
(9.81133e-07 8.79766e-18 -2.02864e-30)
(9.81133e-07 7.53045e-18 -2.03376e-30)
(9.81133e-07 4.78085e-18 1.29001e-33)
(9.81133e-07 1.79285e-17 5.31343e-33)
(9.81133e-07 2.70011e-17 -2.02993e-30)
(9.81133e-07 3.57109e-17 -2.03395e-30)
(9.81133e-07 3.26458e-17 4.40229e-33)
(9.81133e-07 5.12204e-18 4.21285e-33)
(9.81133e-07 -2.5273e-17 0)
(9.81133e-07 -5.97992e-17 2.01171e-33)
(9.81133e-07 -8.25064e-17 2.20115e-33)
(9.81133e-07 -6.76704e-17 -9.11134e-34)
(9.81133e-07 -4.83224e-17 -1.01808e-30)
(9.81133e-07 6.42373e-18 -1.01697e-30)
(9.81133e-07 4.40836e-17 -3.11228e-33)
(9.81133e-07 6.9025e-17 -2.01171e-33)
(9.81133e-07 7.11611e-17 1.29001e-33)
(9.81133e-07 3.38476e-17 -5.31343e-33)
(9.81133e-07 -1.03107e-17 -2.03964e-30)
(9.81133e-07 -5.65361e-17 -2.03414e-30)
(9.81133e-07 -8.92592e-17 1.01587e-30)
(9.81133e-07 -7.22127e-17 1.01386e-30)
(9.81133e-07 -4.11001e-17 2.20115e-33)
(9.81133e-07 2.57803e-17 1.01789e-30)
(9.81133e-07 8.10032e-17 1.01587e-30)
(9.81133e-07 1.029e-16 1.01918e-30)
(9.81133e-07 9.69157e-17 -1.02028e-30)
(9.81133e-07 3.59285e-17 -2.03395e-30)
(9.81133e-07 -2.68384e-17 3.30172e-33)
(9.81133e-07 -8.34009e-17 -2.03395e-30)
(9.81133e-07 -1.10551e-16 -2.03634e-30)
(9.81133e-07 -7.98e-17 2.03596e-30)
(9.81133e-07 -3.66885e-17 2.03835e-30)
(9.81133e-07 3.14732e-17 2.03395e-30)
(9.81133e-07 7.47067e-17 -4.32237e-41)
(9.81133e-07 8.15601e-17 -2.03395e-30)
(9.81133e-07 6.43397e-17 -1.29001e-33)
(9.81133e-07 1.17232e-17 -1.47945e-33)
(9.81133e-07 -3.41028e-17 2.03395e-30)
(9.81133e-07 -6.27479e-17 -2.01171e-33)
(9.81133e-07 -7.22833e-17 -2.03395e-30)
(9.81133e-07 -4.27144e-17 2.39059e-33)
(9.81133e-07 -1.26501e-17 -4.93455e-33)
(9.81133e-07 2.31508e-17 -5.12399e-33)
(9.81133e-07 4.16026e-17 -2.03414e-30)
(9.81133e-07 3.70155e-17 -2.03524e-30)
(9.81133e-07 2.1413e-17 -2.03304e-30)
(9.81133e-07 -1.95454e-18 -4.06608e-30)
(9.81133e-07 -2.35015e-17 -2.03414e-30)
(9.81133e-07 -3.00404e-17 2.01171e-33)
(9.81133e-07 -3.71073e-17 2.03596e-30)
(9.81133e-07 -3.14316e-17 2.03395e-30)
(9.81133e-07 -3.14801e-17 2.01171e-33)
(9.81133e-07 -2.21117e-17 2.01171e-33)
(9.81133e-07 -1.29842e-17 -1.10057e-33)
(9.81133e-07 1.24968e-17 -1.10057e-33)
(9.81133e-07 3.59616e-17 1.89439e-34)
(9.81133e-07 6.05919e-17 -9.11134e-34)
(9.81133e-07 6.58694e-17 -1.4344e-43)
(9.81133e-07 3.93737e-17 1.29001e-33)
(9.81133e-07 -3.58786e-18 -2.92284e-33)
(9.81133e-07 -6.65499e-17 -3.11228e-33)
(9.81133e-07 -1.10875e-16 -6.10223e-30)
(9.81133e-07 -1.08861e-16 -6.10003e-30)
(9.81133e-07 -7.53078e-17 -2.03194e-30)
(9.81133e-07 2.45551e-17 5.31343e-33)
(9.81133e-07 1.10722e-16 4.07029e-30)
(9.81133e-07 1.70826e-16 4.06479e-30)
(9.81133e-07 1.75143e-16 4.0679e-30)
(9.81133e-07 6.864e-17 4.06809e-30)
(9.81133e-07 -5.25098e-17 2.03395e-30)
(9.81133e-07 -1.98618e-16 -1.89439e-34)
(9.81133e-07 -2.76311e-16 -4.06809e-30)
(9.81133e-07 -2.15316e-16 -2.03395e-30)
(9.81133e-07 -9.52423e-17 4.06938e-30)
(9.81133e-07 1.30812e-16 4.06938e-30)
(9.81133e-07 3.07532e-16 2.03433e-30)
(9.81133e-07 3.54927e-16 2.03634e-30)
(9.81133e-07 3.20658e-16 2.03634e-30)
(9.81133e-07 7.11711e-17 1.89439e-34)
(9.81133e-07 -1.35501e-16 2.03414e-30)
(9.81133e-07 -3.23653e-16 4.07048e-30)
(9.81133e-07 -3.81009e-16 2.03615e-30)
(9.81133e-07 -2.1575e-16 5.12399e-33)
(9.81133e-07 -3.26769e-17 -4.06296e-30)
(9.81133e-07 2.13586e-16 -6.10223e-30)
(9.81133e-07 3.36042e-16 -2.03175e-30)
(9.81133e-07 2.60376e-16 6.60344e-33)
(9.81133e-07 1.23232e-16 4.59173e-33)
(9.81133e-07 -1.37789e-16 -3.99276e-45)
(9.81133e-07 -3.15342e-16 -2.03433e-30)
(9.81133e-07 -3.36601e-16 -2.03414e-30)
(9.81133e-07 -2.99166e-16 1.10057e-33)
(9.81133e-07 -7.97426e-17 1.10057e-33)
(9.81133e-07 8.17569e-17 0)
(9.81133e-07 1.94785e-16 3.30172e-33)
(9.81133e-07 2.6796e-16 3.30172e-33)
(9.81133e-07 2.04644e-16 -4.4023e-33)
(9.81133e-07 1.75058e-16 -4.59173e-33)
(9.81133e-07 1.11955e-16 -1.89439e-34)
(9.81133e-07 2.67201e-17 -2.03414e-30)
(9.81133e-07 -7.16911e-17 2.03725e-30)
(9.81133e-07 -2.28739e-16 4.07139e-30)
(9.81133e-07 -3.93554e-16 0)
(9.81133e-07 -4.61197e-16 4.06809e-30)
(9.81133e-07 -3.477e-16 2.03395e-30)
(9.81133e-07 -9.46712e-17 4.37556e-41)
(9.81133e-07 3.78857e-16 2.03414e-30)
(9.81133e-07 6.80251e-16 4.06828e-30)
(9.81133e-07 7.92633e-16 4.06516e-30)
(9.81133e-07 5.71165e-16 -4.0712e-30)
(9.81133e-07 -9.61286e-17 -2.03414e-30)
(9.81133e-07 -6.87296e-16 -4.33118e-41)
(9.81133e-07 -1.19989e-15 -2.03414e-30)
(9.81133e-07 -1.25288e-15 -1.89439e-34)
(9.81133e-07 -5.95634e-16 0)
(9.81133e-07 1.92288e-16 0)
(9.81133e-07 1.27469e-15 9.11136e-34)
(9.81133e-07 1.90842e-15 9.11135e-34)
(9.81133e-07 1.7285e-15 0)
(9.81133e-07 1.20342e-15 3.11227e-33)
(9.81133e-07 -2.67326e-16 2.03725e-30)
(9.81133e-07 -1.40326e-15 2.03395e-30)
(9.81133e-07 -2.21446e-15 2.03395e-30)
(9.81133e-07 -2.46048e-15 2.03395e-30)
(9.81133e-07 -1.45041e-15 -3.78878e-34)
(9.81133e-07 -4.44919e-16 9.11137e-34)
(9.81133e-07 1.06744e-15 2.03505e-30)
(9.81133e-07 2.05711e-15 2.03065e-30)
(9.81133e-07 2.16704e-15 4.06498e-30)
(9.81133e-07 2.00951e-15 4.06828e-30)
(9.81133e-07 7.47871e-16 -1.89439e-34)
(9.81133e-07 -2.06264e-16 -1.89439e-34)
(9.81133e-07 -1.20254e-15 0)
(9.81133e-07 -1.7677e-15 -2.03744e-30)
(9.81133e-07 -1.46094e-15 -1.01738e-29)
(9.81133e-07 -1.07411e-15 -8.13637e-30)
(9.81133e-07 -9.08911e-17 -2.03414e-30)
(9.81133e-07 6.00039e-16 -2.03414e-30)
(9.81133e-07 9.43628e-16 4.06809e-30)
(9.81133e-07 9.70564e-16 4.06809e-30)
(9.81133e-07 3.83872e-16 2.03395e-30)
(9.81133e-07 -1.80861e-16 6.10424e-30)
(9.81133e-07 -6.3523e-16 4.0701e-30)